r 0.0010464 /NodeList/0/DeviceList/1/$ns3::PointToPointNetDevice/MacRx ns3::PppHeader (Point-to-Point Protocol: IP (0x0021)) ns3::Ipv4Header (tos 0x0 DSCP Default ECN Not-ECT ttl 64 id 0 protocol 6 offset (bytes) 0 flags [none] length: 56 10.1.0.1 > 10.2.0.1) ns3::TcpHeader (49153 > 9000 [SYN] Seq=0 Ack=0 Win=65535 ns3::TcpOptionTS(0;0) ns3::TcpOptionWinScale(2) ns3::TcpOptionSackPermitted([sack_perm]) ns3::TcpOptionEnd(EOL))
+ 0.104067 /NodeList/0/DeviceList/1/$ns3::PointToPointNetDevice/TxQueue/Enqueue ns3::PppHeader (Point-to-Point Protocol: IP (0x0021)) ns3::Ipv4Header (tos 0x0 DSCP Default ECN Not-ECT ttl 62 id 0 protocol 6 offset (bytes) 0 flags [none] length: 56 10.2.0.1 > 10.1.0.1) ns3::TcpHeader (9000 > 49153 [SYN|ACK] Seq=0 Ack=1 Win=65535 ns3::TcpOptionTS(52;0) ns3::TcpOptionWinScale(2) ns3::TcpOptionSackPermitted([sack_perm]) ns3::TcpOptionEnd(EOL))
- 0.104067 /NodeList/0/DeviceList/1/$ns3::PointToPointNetDevice/TxQueue/Dequeue ns3::PppHeader (Point-to-Point Protocol: IP (0x0021)) ns3::Ipv4Header (tos 0x0 DSCP Default ECN Not-ECT ttl 62 id 0 protocol 6 offset (bytes) 0 flags [none] length: 56 10.2.0.1 > 10.1.0.1) ns3::TcpHeader (9000 > 49153 [SYN|ACK] Seq=0 Ack=1 Win=65535 ns3::TcpOptionTS(52;0) ns3::TcpOptionWinScale(2) ns3::TcpOptionSackPermitted([sack_perm]) ns3::TcpOptionEnd(EOL))
r 0.106157 /NodeList/0/DeviceList/1/$ns3::PointToPointNetDevice/MacRx ns3::PppHeader (Point-to-Point Protocol: IP (0x0021)) ns3::Ipv4Header (tos 0x0 DSCP Default ECN Not-ECT ttl 64 id 1 protocol 6 offset (bytes) 0 flags [none] length: 52 10.1.0.1 > 10.2.0.1) ns3::TcpHeader (49153 > 9000 [ACK] Seq=1 Ack=1 Win=32768 ns3::TcpOptionTS(105;52) ns3::TcpOptionEnd(EOL))
r 0.107019 /NodeList/0/DeviceList/1/$ns3::PointToPointNetDevice/MacRx ns3::PppHeader (Point-to-Point Protocol: IP (0x0021)) ns3::Ipv4Header (tos 0x0 DSCP Default ECN Not-ECT ttl 64 id 2 protocol 6 offset (bytes) 0 flags [none] length: 1076 10.1.0.1 > 10.2.0.1) ns3::TcpHeader (49153 > 9000 [ACK] Seq=1 Ack=1 Win=32768 ns3::TcpOptionTS(105;52) ns3::TcpOptionEnd(EOL)) Payload (size=1024)
r 0.107882 /NodeList/0/DeviceList/1/$ns3::PointToPointNetDevice/MacRx ns3::PppHeader (Point-to-Point Protocol: IP (0x0021)) ns3::Ipv4Header (tos 0x0 DSCP Default ECN Not-ECT ttl 64 id 3 protocol 6 offset (bytes) 0 flags [none] length: 1076 10.1.0.1 > 10.2.0.1) ns3::TcpHeader (49153 > 9000 [ACK] Seq=1025 Ack=1 Win=32768 ns3::TcpOptionTS(105;52) ns3::TcpOptionEnd(EOL)) Payload (size=1024)
r 0.108744 /NodeList/0/DeviceList/1/$ns3::PointToPointNetDevice/MacRx ns3::PppHeader (Point-to-Point Protocol: IP (0x0021)) ns3::Ipv4Header (tos 0x0 DSCP Default ECN Not-ECT ttl 64 id 4 protocol 6 offset (bytes) 0 flags [none] length: 1076 10.1.0.1 > 10.2.0.1) ns3::TcpHeader (49153 > 9000 [ACK] Seq=2049 Ack=1 Win=32768 ns3::TcpOptionTS(105;52) ns3::TcpOptionEnd(EOL)) Payload (size=1024)
r 0.109606 /NodeList/0/DeviceList/1/$ns3::PointToPointNetDevice/MacRx ns3::PppHeader (Point-to-Point Protocol: IP (0x0021)) ns3::Ipv4Header (tos 0x0 DSCP Default ECN Not-ECT ttl 64 id 5 protocol 6 offset (bytes) 0 flags [none] length: 1076 10.1.0.1 > 10.2.0.1) ns3::TcpHeader (49153 > 9000 [ACK] Seq=3073 Ack=1 Win=32768 ns3::TcpOptionTS(105;52) ns3::TcpOptionEnd(EOL)) Payload (size=1024)
r 0.110469 /NodeList/0/DeviceList/1/$ns3::PointToPointNetDevice/MacRx ns3::PppHeader (Point-to-Point Protocol: IP (0x0021)) ns3::Ipv4Header (tos 0x0 DSCP Default ECN Not-ECT ttl 64 id 6 protocol 6 offset (bytes) 0 flags [none] length: 1076 10.1.0.1 > 10.2.0.1) ns3::TcpHeader (49153 > 9000 [ACK] Seq=4097 Ack=1 Win=32768 ns3::TcpOptionTS(105;52) ns3::TcpOptionEnd(EOL)) Payload (size=1024)
r 0.111331 /NodeList/0/DeviceList/1/$ns3::PointToPointNetDevice/MacRx ns3::PppHeader (Point-to-Point Protocol: IP (0x0021)) ns3::Ipv4Header (tos 0x0 DSCP Default ECN Not-ECT ttl 64 id 7 protocol 6 offset (bytes) 0 flags [none] length: 1076 10.1.0.1 > 10.2.0.1) ns3::TcpHeader (49153 > 9000 [ACK] Seq=5121 Ack=1 Win=32768 ns3::TcpOptionTS(105;52) ns3::TcpOptionEnd(EOL)) Payload (size=1024)
r 0.112194 /NodeList/0/DeviceList/1/$ns3::PointToPointNetDevice/MacRx ns3::PppHeader (Point-to-Point Protocol: IP (0x0021)) ns3::Ipv4Header (tos 0x0 DSCP Default ECN Not-ECT ttl 64 id 8 protocol 6 offset (bytes) 0 flags [none] length: 1076 10.1.0.1 > 10.2.0.1) ns3::TcpHeader (49153 > 9000 [ACK] Seq=6145 Ack=1 Win=32768 ns3::TcpOptionTS(105;52) ns3::TcpOptionEnd(EOL)) Payload (size=1024)
r 0.113056 /NodeList/0/DeviceList/1/$ns3::PointToPointNetDevice/MacRx ns3::PppHeader (Point-to-Point Protocol: IP (0x0021)) ns3::Ipv4Header (tos 0x0 DSCP Default ECN Not-ECT ttl 64 id 9 protocol 6 offset (bytes) 0 flags [none] length: 1076 10.1.0.1 > 10.2.0.1) ns3::TcpHeader (49153 > 9000 [ACK] Seq=7169 Ack=1 Win=32768 ns3::TcpOptionTS(105;52) ns3::TcpOptionEnd(EOL)) Payload (size=1024)
r 0.113918 /NodeList/0/DeviceList/1/$ns3::PointToPointNetDevice/MacRx ns3::PppHeader (Point-to-Point Protocol: IP (0x0021)) ns3::Ipv4Header (tos 0x0 DSCP Default ECN Not-ECT ttl 64 id 10 protocol 6 offset (bytes) 0 flags [none] length: 1076 10.1.0.1 > 10.2.0.1) ns3::TcpHeader (49153 > 9000 [ACK] Seq=8193 Ack=1 Win=32768 ns3::TcpOptionTS(105;52) ns3::TcpOptionEnd(EOL)) Payload (size=1024)
r 0.114781 /NodeList/0/DeviceList/1/$ns3::PointToPointNetDevice/MacRx ns3::PppHeader (Point-to-Point Protocol: IP (0x0021)) ns3::Ipv4Header (tos 0x0 DSCP Default ECN Not-ECT ttl 64 id 11 protocol 6 offset (bytes) 0 flags [none] length: 1076 10.1.0.1 > 10.2.0.1) ns3::TcpHeader (49153 > 9000 [ACK] Seq=9217 Ack=1 Win=32768 ns3::TcpOptionTS(105;52) ns3::TcpOptionEnd(EOL)) Payload (size=1024)
+ 0.218981 /NodeList/0/DeviceList/1/$ns3::PointToPointNetDevice/TxQueue/Enqueue ns3::PppHeader (Point-to-Point Protocol: IP (0x0021)) ns3::Ipv4Header (tos 0x0 DSCP Default ECN Not-ECT ttl 62 id 1 protocol 6 offset (bytes) 0 flags [none] length: 52 10.2.0.1 > 10.1.0.1) ns3::TcpHeader (9000 > 49153 [ACK] Seq=1 Ack=1025 Win=32768 ns3::TcpOptionTS(167;105) ns3::TcpOptionEnd(EOL))
- 0.218981 /NodeList/0/DeviceList/1/$ns3::PointToPointNetDevice/TxQueue/Dequeue ns3::PppHeader (Point-to-Point Protocol: IP (0x0021)) ns3::Ipv4Header (tos 0x0 DSCP Default ECN Not-ECT ttl 62 id 1 protocol 6 offset (bytes) 0 flags [none] length: 52 10.2.0.1 > 10.1.0.1) ns3::TcpHeader (9000 > 49153 [ACK] Seq=1 Ack=1025 Win=32768 ns3::TcpOptionTS(167;105) ns3::TcpOptionEnd(EOL))
r 0.221886 /NodeList/0/DeviceList/1/$ns3::PointToPointNetDevice/MacRx ns3::PppHeader (Point-to-Point Protocol: IP (0x0021)) ns3::Ipv4Header (tos 0x0 DSCP Default ECN Not-ECT ttl 64 id 12 protocol 6 offset (bytes) 0 flags [none] length: 1076 10.1.0.1 > 10.2.0.1) ns3::TcpHeader (49153 > 9000 [ACK] Seq=10241 Ack=1 Win=32768 ns3::TcpOptionTS(220;167) ns3::TcpOptionEnd(EOL)) Payload (size=1024)
r 0.22552 /NodeList/0/DeviceList/1/$ns3::PointToPointNetDevice/MacRx ns3::PppHeader (Point-to-Point Protocol: IP (0x0021)) ns3::Ipv4Header (tos 0x0 DSCP Default ECN Not-ECT ttl 64 id 13 protocol 6 offset (bytes) 0 flags [none] length: 1076 10.1.0.1 > 10.2.0.1) ns3::TcpHeader (49153 > 9000 [ACK] Seq=11265 Ack=1 Win=32768 ns3::TcpOptionTS(223;167) ns3::TcpOptionEnd(EOL)) Payload (size=1024)
+ 0.236229 /NodeList/0/DeviceList/1/$ns3::PointToPointNetDevice/TxQueue/Enqueue ns3::PppHeader (Point-to-Point Protocol: IP (0x0021)) ns3::Ipv4Header (tos 0x0 DSCP Default ECN Not-ECT ttl 62 id 2 protocol 6 offset (bytes) 0 flags [none] length: 52 10.2.0.1 > 10.1.0.1) ns3::TcpHeader (9000 > 49153 [ACK] Seq=1 Ack=3073 Win=32768 ns3::TcpOptionTS(184;105) ns3::TcpOptionEnd(EOL))
- 0.236229 /NodeList/0/DeviceList/1/$ns3::PointToPointNetDevice/TxQueue/Dequeue ns3::PppHeader (Point-to-Point Protocol: IP (0x0021)) ns3::Ipv4Header (tos 0x0 DSCP Default ECN Not-ECT ttl 62 id 2 protocol 6 offset (bytes) 0 flags [none] length: 52 10.2.0.1 > 10.1.0.1) ns3::TcpHeader (9000 > 49153 [ACK] Seq=1 Ack=3073 Win=32768 ns3::TcpOptionTS(184;105) ns3::TcpOptionEnd(EOL))
r 0.239134 /NodeList/0/DeviceList/1/$ns3::PointToPointNetDevice/MacRx ns3::PppHeader (Point-to-Point Protocol: IP (0x0021)) ns3::Ipv4Header (tos 0x0 DSCP Default ECN Not-ECT ttl 64 id 14 protocol 6 offset (bytes) 0 flags [none] length: 1076 10.1.0.1 > 10.2.0.1) ns3::TcpHeader (49153 > 9000 [ACK] Seq=12289 Ack=1 Win=32768 ns3::TcpOptionTS(237;184) ns3::TcpOptionEnd(EOL)) Payload (size=1024)
r 0.242768 /NodeList/0/DeviceList/1/$ns3::PointToPointNetDevice/MacRx ns3::PppHeader (Point-to-Point Protocol: IP (0x0021)) ns3::Ipv4Header (tos 0x0 DSCP Default ECN Not-ECT ttl 64 id 15 protocol 6 offset (bytes) 0 flags [none] length: 1076 10.1.0.1 > 10.2.0.1) ns3::TcpHeader (49153 > 9000 [ACK] Seq=13313 Ack=1 Win=32768 ns3::TcpOptionTS(240;184) ns3::TcpOptionEnd(EOL)) Payload (size=1024)
r 0.246401 /NodeList/0/DeviceList/1/$ns3::PointToPointNetDevice/MacRx ns3::PppHeader (Point-to-Point Protocol: IP (0x0021)) ns3::Ipv4Header (tos 0x0 DSCP Default ECN Not-ECT ttl 64 id 16 protocol 6 offset (bytes) 0 flags [none] length: 1076 10.1.0.1 > 10.2.0.1) ns3::TcpHeader (49153 > 9000 [ACK] Seq=14337 Ack=1 Win=32768 ns3::TcpOptionTS(244;184) ns3::TcpOptionEnd(EOL)) Payload (size=1024)
r 0.250034 /NodeList/0/DeviceList/1/$ns3::PointToPointNetDevice/MacRx ns3::PppHeader (Point-to-Point Protocol: IP (0x0021)) ns3::Ipv4Header (tos 0x0 DSCP Default ECN Not-ECT ttl 64 id 17 protocol 6 offset (bytes) 0 flags [none] length: 1076 10.1.0.1 > 10.2.0.1) ns3::TcpHeader (49153 > 9000 [ACK] Seq=15361 Ack=1 Win=32768 ns3::TcpOptionTS(248;184) ns3::TcpOptionEnd(EOL)) Payload (size=1024)
+ 0.253477 /NodeList/0/DeviceList/1/$ns3::PointToPointNetDevice/TxQueue/Enqueue ns3::PppHeader (Point-to-Point Protocol: IP (0x0021)) ns3::Ipv4Header (tos 0x0 DSCP Default ECN Not-ECT ttl 62 id 3 protocol 6 offset (bytes) 0 flags [none] length: 52 10.2.0.1 > 10.1.0.1) ns3::TcpHeader (9000 > 49153 [ACK] Seq=1 Ack=5121 Win=32768 ns3::TcpOptionTS(202;105) ns3::TcpOptionEnd(EOL))
- 0.253477 /NodeList/0/DeviceList/1/$ns3::PointToPointNetDevice/TxQueue/Dequeue ns3::PppHeader (Point-to-Point Protocol: IP (0x0021)) ns3::Ipv4Header (tos 0x0 DSCP Default ECN Not-ECT ttl 62 id 3 protocol 6 offset (bytes) 0 flags [none] length: 52 10.2.0.1 > 10.1.0.1) ns3::TcpHeader (9000 > 49153 [ACK] Seq=1 Ack=5121 Win=32768 ns3::TcpOptionTS(202;105) ns3::TcpOptionEnd(EOL))
r 0.256382 /NodeList/0/DeviceList/1/$ns3::PointToPointNetDevice/MacRx ns3::PppHeader (Point-to-Point Protocol: IP (0x0021)) ns3::Ipv4Header (tos 0x0 DSCP Default ECN Not-ECT ttl 64 id 18 protocol 6 offset (bytes) 0 flags [none] length: 1076 10.1.0.1 > 10.2.0.1) ns3::TcpHeader (49153 > 9000 [ACK] Seq=16385 Ack=1 Win=32768 ns3::TcpOptionTS(254;202) ns3::TcpOptionEnd(EOL)) Payload (size=1024)
r 0.260016 /NodeList/0/DeviceList/1/$ns3::PointToPointNetDevice/MacRx ns3::PppHeader (Point-to-Point Protocol: IP (0x0021)) ns3::Ipv4Header (tos 0x0 DSCP Default ECN Not-ECT ttl 64 id 19 protocol 6 offset (bytes) 0 flags [none] length: 1076 10.1.0.1 > 10.2.0.1) ns3::TcpHeader (49153 > 9000 [ACK] Seq=17409 Ack=1 Win=32768 ns3::TcpOptionTS(258;202) ns3::TcpOptionEnd(EOL)) Payload (size=1024)
r 0.263649 /NodeList/0/DeviceList/1/$ns3::PointToPointNetDevice/MacRx ns3::PppHeader (Point-to-Point Protocol: IP (0x0021)) ns3::Ipv4Header (tos 0x0 DSCP Default ECN Not-ECT ttl 64 id 20 protocol 6 offset (bytes) 0 flags [none] length: 1076 10.1.0.1 > 10.2.0.1) ns3::TcpHeader (49153 > 9000 [ACK] Seq=18433 Ack=1 Win=32768 ns3::TcpOptionTS(261;202) ns3::TcpOptionEnd(EOL)) Payload (size=1024)
r 0.267282 /NodeList/0/DeviceList/1/$ns3::PointToPointNetDevice/MacRx ns3::PppHeader (Point-to-Point Protocol: IP (0x0021)) ns3::Ipv4Header (tos 0x0 DSCP Default ECN Not-ECT ttl 64 id 21 protocol 6 offset (bytes) 0 flags [none] length: 1076 10.1.0.1 > 10.2.0.1) ns3::TcpHeader (49153 > 9000 [ACK] Seq=19457 Ack=1 Win=32768 ns3::TcpOptionTS(265;202) ns3::TcpOptionEnd(EOL)) Payload (size=1024)
+ 0.270725 /NodeList/0/DeviceList/1/$ns3::PointToPointNetDevice/TxQueue/Enqueue ns3::PppHeader (Point-to-Point Protocol: IP (0x0021)) ns3::Ipv4Header (tos 0x0 DSCP Default ECN Not-ECT ttl 62 id 4 protocol 6 offset (bytes) 0 flags [none] length: 52 10.2.0.1 > 10.1.0.1) ns3::TcpHeader (9000 > 49153 [ACK] Seq=1 Ack=7169 Win=32768 ns3::TcpOptionTS(219;105) ns3::TcpOptionEnd(EOL))
- 0.270725 /NodeList/0/DeviceList/1/$ns3::PointToPointNetDevice/TxQueue/Dequeue ns3::PppHeader (Point-to-Point Protocol: IP (0x0021)) ns3::Ipv4Header (tos 0x0 DSCP Default ECN Not-ECT ttl 62 id 4 protocol 6 offset (bytes) 0 flags [none] length: 52 10.2.0.1 > 10.1.0.1) ns3::TcpHeader (9000 > 49153 [ACK] Seq=1 Ack=7169 Win=32768 ns3::TcpOptionTS(219;105) ns3::TcpOptionEnd(EOL))
r 0.27363 /NodeList/0/DeviceList/1/$ns3::PointToPointNetDevice/MacRx ns3::PppHeader (Point-to-Point Protocol: IP (0x0021)) ns3::Ipv4Header (tos 0x0 DSCP Default ECN Not-ECT ttl 64 id 22 protocol 6 offset (bytes) 0 flags [none] length: 1076 10.1.0.1 > 10.2.0.1) ns3::TcpHeader (49153 > 9000 [ACK] Seq=20481 Ack=1 Win=32768 ns3::TcpOptionTS(271;219) ns3::TcpOptionEnd(EOL)) Payload (size=1024)
r 0.277264 /NodeList/0/DeviceList/1/$ns3::PointToPointNetDevice/MacRx ns3::PppHeader (Point-to-Point Protocol: IP (0x0021)) ns3::Ipv4Header (tos 0x0 DSCP Default ECN Not-ECT ttl 64 id 23 protocol 6 offset (bytes) 0 flags [none] length: 1076 10.1.0.1 > 10.2.0.1) ns3::TcpHeader (49153 > 9000 [ACK] Seq=21505 Ack=1 Win=32768 ns3::TcpOptionTS(275;219) ns3::TcpOptionEnd(EOL)) Payload (size=1024)
r 0.280897 /NodeList/0/DeviceList/1/$ns3::PointToPointNetDevice/MacRx ns3::PppHeader (Point-to-Point Protocol: IP (0x0021)) ns3::Ipv4Header (tos 0x0 DSCP Default ECN Not-ECT ttl 64 id 24 protocol 6 offset (bytes) 0 flags [none] length: 1076 10.1.0.1 > 10.2.0.1) ns3::TcpHeader (49153 > 9000 [ACK] Seq=22529 Ack=1 Win=32768 ns3::TcpOptionTS(279;219) ns3::TcpOptionEnd(EOL)) Payload (size=1024)
r 0.28453 /NodeList/0/DeviceList/1/$ns3::PointToPointNetDevice/MacRx ns3::PppHeader (Point-to-Point Protocol: IP (0x0021)) ns3::Ipv4Header (tos 0x0 DSCP Default ECN Not-ECT ttl 64 id 25 protocol 6 offset (bytes) 0 flags [none] length: 1076 10.1.0.1 > 10.2.0.1) ns3::TcpHeader (49153 > 9000 [ACK] Seq=23553 Ack=1 Win=32768 ns3::TcpOptionTS(282;219) ns3::TcpOptionEnd(EOL)) Payload (size=1024)
+ 0.287973 /NodeList/0/DeviceList/1/$ns3::PointToPointNetDevice/TxQueue/Enqueue ns3::PppHeader (Point-to-Point Protocol: IP (0x0021)) ns3::Ipv4Header (tos 0x0 DSCP Default ECN Not-ECT ttl 62 id 5 protocol 6 offset (bytes) 0 flags [none] length: 52 10.2.0.1 > 10.1.0.1) ns3::TcpHeader (9000 > 49153 [ACK] Seq=1 Ack=9217 Win=32768 ns3::TcpOptionTS(236;105) ns3::TcpOptionEnd(EOL))
- 0.287973 /NodeList/0/DeviceList/1/$ns3::PointToPointNetDevice/TxQueue/Dequeue ns3::PppHeader (Point-to-Point Protocol: IP (0x0021)) ns3::Ipv4Header (tos 0x0 DSCP Default ECN Not-ECT ttl 62 id 5 protocol 6 offset (bytes) 0 flags [none] length: 52 10.2.0.1 > 10.1.0.1) ns3::TcpHeader (9000 > 49153 [ACK] Seq=1 Ack=9217 Win=32768 ns3::TcpOptionTS(236;105) ns3::TcpOptionEnd(EOL))
r 0.290878 /NodeList/0/DeviceList/1/$ns3::PointToPointNetDevice/MacRx ns3::PppHeader (Point-to-Point Protocol: IP (0x0021)) ns3::Ipv4Header (tos 0x0 DSCP Default ECN Not-ECT ttl 64 id 26 protocol 6 offset (bytes) 0 flags [none] length: 1076 10.1.0.1 > 10.2.0.1) ns3::TcpHeader (49153 > 9000 [ACK] Seq=24577 Ack=1 Win=32768 ns3::TcpOptionTS(289;236) ns3::TcpOptionEnd(EOL)) Payload (size=1024)
r 0.294512 /NodeList/0/DeviceList/1/$ns3::PointToPointNetDevice/MacRx ns3::PppHeader (Point-to-Point Protocol: IP (0x0021)) ns3::Ipv4Header (tos 0x0 DSCP Default ECN Not-ECT ttl 64 id 27 protocol 6 offset (bytes) 0 flags [none] length: 1076 10.1.0.1 > 10.2.0.1) ns3::TcpHeader (49153 > 9000 [ACK] Seq=25601 Ack=1 Win=32768 ns3::TcpOptionTS(292;236) ns3::TcpOptionEnd(EOL)) Payload (size=1024)
r 0.298145 /NodeList/0/DeviceList/1/$ns3::PointToPointNetDevice/MacRx ns3::PppHeader (Point-to-Point Protocol: IP (0x0021)) ns3::Ipv4Header (tos 0x0 DSCP Default ECN Not-ECT ttl 64 id 28 protocol 6 offset (bytes) 0 flags [none] length: 1076 10.1.0.1 > 10.2.0.1) ns3::TcpHeader (49153 > 9000 [ACK] Seq=26625 Ack=1 Win=32768 ns3::TcpOptionTS(296;236) ns3::TcpOptionEnd(EOL)) Payload (size=1024)
r 0.301778 /NodeList/0/DeviceList/1/$ns3::PointToPointNetDevice/MacRx ns3::PppHeader (Point-to-Point Protocol: IP (0x0021)) ns3::Ipv4Header (tos 0x0 DSCP Default ECN Not-ECT ttl 64 id 29 protocol 6 offset (bytes) 0 flags [none] length: 1076 10.1.0.1 > 10.2.0.1) ns3::TcpHeader (49153 > 9000 [ACK] Seq=27649 Ack=1 Win=32768 ns3::TcpOptionTS(299;236) ns3::TcpOptionEnd(EOL)) Payload (size=1024)
+ 0.333848 /NodeList/0/DeviceList/1/$ns3::PointToPointNetDevice/TxQueue/Enqueue ns3::PppHeader (Point-to-Point Protocol: IP (0x0021)) ns3::Ipv4Header (tos 0x0 DSCP Default ECN Not-ECT ttl 62 id 6 protocol 6 offset (bytes) 0 flags [none] length: 52 10.2.0.1 > 10.1.0.1) ns3::TcpHeader (9000 > 49153 [ACK] Seq=1 Ack=11265 Win=32768 ns3::TcpOptionTS(282;105) ns3::TcpOptionEnd(EOL))
- 0.333848 /NodeList/0/DeviceList/1/$ns3::PointToPointNetDevice/TxQueue/Dequeue ns3::PppHeader (Point-to-Point Protocol: IP (0x0021)) ns3::Ipv4Header (tos 0x0 DSCP Default ECN Not-ECT ttl 62 id 6 protocol 6 offset (bytes) 0 flags [none] length: 52 10.2.0.1 > 10.1.0.1) ns3::TcpHeader (9000 > 49153 [ACK] Seq=1 Ack=11265 Win=32768 ns3::TcpOptionTS(282;105) ns3::TcpOptionEnd(EOL))
r 0.336754 /NodeList/0/DeviceList/1/$ns3::PointToPointNetDevice/MacRx ns3::PppHeader (Point-to-Point Protocol: IP (0x0021)) ns3::Ipv4Header (tos 0x0 DSCP Default ECN Not-ECT ttl 64 id 30 protocol 6 offset (bytes) 0 flags [none] length: 1076 10.1.0.1 > 10.2.0.1) ns3::TcpHeader (49153 > 9000 [ACK] Seq=28673 Ack=1 Win=32768 ns3::TcpOptionTS(334;282) ns3::TcpOptionEnd(EOL)) Payload (size=1024)
r 0.340387 /NodeList/0/DeviceList/1/$ns3::PointToPointNetDevice/MacRx ns3::PppHeader (Point-to-Point Protocol: IP (0x0021)) ns3::Ipv4Header (tos 0x0 DSCP Default ECN Not-ECT ttl 64 id 31 protocol 6 offset (bytes) 0 flags [none] length: 1076 10.1.0.1 > 10.2.0.1) ns3::TcpHeader (49153 > 9000 [ACK] Seq=29697 Ack=1 Win=32768 ns3::TcpOptionTS(338;282) ns3::TcpOptionEnd(EOL)) Payload (size=1024)
+ 0.351096 /NodeList/0/DeviceList/1/$ns3::PointToPointNetDevice/TxQueue/Enqueue ns3::PppHeader (Point-to-Point Protocol: IP (0x0021)) ns3::Ipv4Header (tos 0x0 DSCP Default ECN Not-ECT ttl 62 id 7 protocol 6 offset (bytes) 0 flags [none] length: 52 10.2.0.1 > 10.1.0.1) ns3::TcpHeader (9000 > 49153 [ACK] Seq=1 Ack=13313 Win=32768 ns3::TcpOptionTS(299;223) ns3::TcpOptionEnd(EOL))
- 0.351096 /NodeList/0/DeviceList/1/$ns3::PointToPointNetDevice/TxQueue/Dequeue ns3::PppHeader (Point-to-Point Protocol: IP (0x0021)) ns3::Ipv4Header (tos 0x0 DSCP Default ECN Not-ECT ttl 62 id 7 protocol 6 offset (bytes) 0 flags [none] length: 52 10.2.0.1 > 10.1.0.1) ns3::TcpHeader (9000 > 49153 [ACK] Seq=1 Ack=13313 Win=32768 ns3::TcpOptionTS(299;223) ns3::TcpOptionEnd(EOL))
r 0.354002 /NodeList/0/DeviceList/1/$ns3::PointToPointNetDevice/MacRx ns3::PppHeader (Point-to-Point Protocol: IP (0x0021)) ns3::Ipv4Header (tos 0x0 DSCP Default ECN Not-ECT ttl 64 id 32 protocol 6 offset (bytes) 0 flags [none] length: 1076 10.1.0.1 > 10.2.0.1) ns3::TcpHeader (49153 > 9000 [ACK] Seq=30721 Ack=1 Win=32768 ns3::TcpOptionTS(352;299) ns3::TcpOptionEnd(EOL)) Payload (size=1024)
r 0.357635 /NodeList/0/DeviceList/1/$ns3::PointToPointNetDevice/MacRx ns3::PppHeader (Point-to-Point Protocol: IP (0x0021)) ns3::Ipv4Header (tos 0x0 DSCP Default ECN Not-ECT ttl 64 id 33 protocol 6 offset (bytes) 0 flags [none] length: 1076 10.1.0.1 > 10.2.0.1) ns3::TcpHeader (49153 > 9000 [ACK] Seq=31745 Ack=1 Win=32768 ns3::TcpOptionTS(355;299) ns3::TcpOptionEnd(EOL)) Payload (size=1024)
r 0.361268 /NodeList/0/DeviceList/1/$ns3::PointToPointNetDevice/MacRx ns3::PppHeader (Point-to-Point Protocol: IP (0x0021)) ns3::Ipv4Header (tos 0x0 DSCP Default ECN Not-ECT ttl 64 id 34 protocol 6 offset (bytes) 0 flags [none] length: 1076 10.1.0.1 > 10.2.0.1) ns3::TcpHeader (49153 > 9000 [ACK] Seq=32769 Ack=1 Win=32768 ns3::TcpOptionTS(359;299) ns3::TcpOptionEnd(EOL)) Payload (size=1024)
r 0.364901 /NodeList/0/DeviceList/1/$ns3::PointToPointNetDevice/MacRx ns3::PppHeader (Point-to-Point Protocol: IP (0x0021)) ns3::Ipv4Header (tos 0x0 DSCP Default ECN Not-ECT ttl 64 id 35 protocol 6 offset (bytes) 0 flags [none] length: 1076 10.1.0.1 > 10.2.0.1) ns3::TcpHeader (49153 > 9000 [ACK] Seq=33793 Ack=1 Win=32768 ns3::TcpOptionTS(363;299) ns3::TcpOptionEnd(EOL)) Payload (size=1024)
+ 0.368344 /NodeList/0/DeviceList/1/$ns3::PointToPointNetDevice/TxQueue/Enqueue ns3::PppHeader (Point-to-Point Protocol: IP (0x0021)) ns3::Ipv4Header (tos 0x0 DSCP Default ECN Not-ECT ttl 62 id 8 protocol 6 offset (bytes) 0 flags [none] length: 52 10.2.0.1 > 10.1.0.1) ns3::TcpHeader (9000 > 49153 [ACK] Seq=1 Ack=15361 Win=32768 ns3::TcpOptionTS(316;240) ns3::TcpOptionEnd(EOL))
- 0.368344 /NodeList/0/DeviceList/1/$ns3::PointToPointNetDevice/TxQueue/Dequeue ns3::PppHeader (Point-to-Point Protocol: IP (0x0021)) ns3::Ipv4Header (tos 0x0 DSCP Default ECN Not-ECT ttl 62 id 8 protocol 6 offset (bytes) 0 flags [none] length: 52 10.2.0.1 > 10.1.0.1) ns3::TcpHeader (9000 > 49153 [ACK] Seq=1 Ack=15361 Win=32768 ns3::TcpOptionTS(316;240) ns3::TcpOptionEnd(EOL))
r 0.37125 /NodeList/0/DeviceList/1/$ns3::PointToPointNetDevice/MacRx ns3::PppHeader (Point-to-Point Protocol: IP (0x0021)) ns3::Ipv4Header (tos 0x0 DSCP Default ECN Not-ECT ttl 64 id 36 protocol 6 offset (bytes) 0 flags [none] length: 1076 10.1.0.1 > 10.2.0.1) ns3::TcpHeader (49153 > 9000 [ACK] Seq=34817 Ack=1 Win=32768 ns3::TcpOptionTS(369;316) ns3::TcpOptionEnd(EOL)) Payload (size=1024)
r 0.374883 /NodeList/0/DeviceList/1/$ns3::PointToPointNetDevice/MacRx ns3::PppHeader (Point-to-Point Protocol: IP (0x0021)) ns3::Ipv4Header (tos 0x0 DSCP Default ECN Not-ECT ttl 64 id 37 protocol 6 offset (bytes) 0 flags [none] length: 1076 10.1.0.1 > 10.2.0.1) ns3::TcpHeader (49153 > 9000 [ACK] Seq=35841 Ack=1 Win=32768 ns3::TcpOptionTS(373;316) ns3::TcpOptionEnd(EOL)) Payload (size=1024)
r 0.378516 /NodeList/0/DeviceList/1/$ns3::PointToPointNetDevice/MacRx ns3::PppHeader (Point-to-Point Protocol: IP (0x0021)) ns3::Ipv4Header (tos 0x0 DSCP Default ECN Not-ECT ttl 64 id 38 protocol 6 offset (bytes) 0 flags [none] length: 1076 10.1.0.1 > 10.2.0.1) ns3::TcpHeader (49153 > 9000 [ACK] Seq=36865 Ack=1 Win=32768 ns3::TcpOptionTS(376;316) ns3::TcpOptionEnd(EOL)) Payload (size=1024)
r 0.382149 /NodeList/0/DeviceList/1/$ns3::PointToPointNetDevice/MacRx ns3::PppHeader (Point-to-Point Protocol: IP (0x0021)) ns3::Ipv4Header (tos 0x0 DSCP Default ECN Not-ECT ttl 64 id 39 protocol 6 offset (bytes) 0 flags [none] length: 1076 10.1.0.1 > 10.2.0.1) ns3::TcpHeader (49153 > 9000 [ACK] Seq=37889 Ack=1 Win=32768 ns3::TcpOptionTS(380;316) ns3::TcpOptionEnd(EOL)) Payload (size=1024)
+ 0.385592 /NodeList/0/DeviceList/1/$ns3::PointToPointNetDevice/TxQueue/Enqueue ns3::PppHeader (Point-to-Point Protocol: IP (0x0021)) ns3::Ipv4Header (tos 0x0 DSCP Default ECN Not-ECT ttl 62 id 9 protocol 6 offset (bytes) 0 flags [none] length: 52 10.2.0.1 > 10.1.0.1) ns3::TcpHeader (9000 > 49153 [ACK] Seq=1 Ack=17409 Win=32768 ns3::TcpOptionTS(334;248) ns3::TcpOptionEnd(EOL))
- 0.385592 /NodeList/0/DeviceList/1/$ns3::PointToPointNetDevice/TxQueue/Dequeue ns3::PppHeader (Point-to-Point Protocol: IP (0x0021)) ns3::Ipv4Header (tos 0x0 DSCP Default ECN Not-ECT ttl 62 id 9 protocol 6 offset (bytes) 0 flags [none] length: 52 10.2.0.1 > 10.1.0.1) ns3::TcpHeader (9000 > 49153 [ACK] Seq=1 Ack=17409 Win=32768 ns3::TcpOptionTS(334;248) ns3::TcpOptionEnd(EOL))
r 0.388498 /NodeList/0/DeviceList/1/$ns3::PointToPointNetDevice/MacRx ns3::PppHeader (Point-to-Point Protocol: IP (0x0021)) ns3::Ipv4Header (tos 0x0 DSCP Default ECN Not-ECT ttl 64 id 40 protocol 6 offset (bytes) 0 flags [none] length: 1076 10.1.0.1 > 10.2.0.1) ns3::TcpHeader (49153 > 9000 [ACK] Seq=38913 Ack=1 Win=32768 ns3::TcpOptionTS(386;334) ns3::TcpOptionEnd(EOL)) Payload (size=1024)
r 0.392131 /NodeList/0/DeviceList/1/$ns3::PointToPointNetDevice/MacRx ns3::PppHeader (Point-to-Point Protocol: IP (0x0021)) ns3::Ipv4Header (tos 0x0 DSCP Default ECN Not-ECT ttl 64 id 41 protocol 6 offset (bytes) 0 flags [none] length: 1076 10.1.0.1 > 10.2.0.1) ns3::TcpHeader (49153 > 9000 [ACK] Seq=39937 Ack=1 Win=32768 ns3::TcpOptionTS(390;334) ns3::TcpOptionEnd(EOL)) Payload (size=1024)
r 0.395764 /NodeList/0/DeviceList/1/$ns3::PointToPointNetDevice/MacRx ns3::PppHeader (Point-to-Point Protocol: IP (0x0021)) ns3::Ipv4Header (tos 0x0 DSCP Default ECN Not-ECT ttl 64 id 42 protocol 6 offset (bytes) 0 flags [none] length: 1076 10.1.0.1 > 10.2.0.1) ns3::TcpHeader (49153 > 9000 [ACK] Seq=40961 Ack=1 Win=32768 ns3::TcpOptionTS(393;334) ns3::TcpOptionEnd(EOL)) Payload (size=1024)
r 0.399397 /NodeList/0/DeviceList/1/$ns3::PointToPointNetDevice/MacRx ns3::PppHeader (Point-to-Point Protocol: IP (0x0021)) ns3::Ipv4Header (tos 0x0 DSCP Default ECN Not-ECT ttl 64 id 43 protocol 6 offset (bytes) 0 flags [none] length: 1076 10.1.0.1 > 10.2.0.1) ns3::TcpHeader (49153 > 9000 [ACK] Seq=41985 Ack=1 Win=32768 ns3::TcpOptionTS(397;334) ns3::TcpOptionEnd(EOL)) Payload (size=1024)
+ 0.40284 /NodeList/0/DeviceList/1/$ns3::PointToPointNetDevice/TxQueue/Enqueue ns3::PppHeader (Point-to-Point Protocol: IP (0x0021)) ns3::Ipv4Header (tos 0x0 DSCP Default ECN Not-ECT ttl 62 id 10 protocol 6 offset (bytes) 0 flags [none] length: 52 10.2.0.1 > 10.1.0.1) ns3::TcpHeader (9000 > 49153 [ACK] Seq=1 Ack=19457 Win=32768 ns3::TcpOptionTS(351;258) ns3::TcpOptionEnd(EOL))
- 0.40284 /NodeList/0/DeviceList/1/$ns3::PointToPointNetDevice/TxQueue/Dequeue ns3::PppHeader (Point-to-Point Protocol: IP (0x0021)) ns3::Ipv4Header (tos 0x0 DSCP Default ECN Not-ECT ttl 62 id 10 protocol 6 offset (bytes) 0 flags [none] length: 52 10.2.0.1 > 10.1.0.1) ns3::TcpHeader (9000 > 49153 [ACK] Seq=1 Ack=19457 Win=32768 ns3::TcpOptionTS(351;258) ns3::TcpOptionEnd(EOL))
r 0.405746 /NodeList/0/DeviceList/1/$ns3::PointToPointNetDevice/MacRx ns3::PppHeader (Point-to-Point Protocol: IP (0x0021)) ns3::Ipv4Header (tos 0x0 DSCP Default ECN Not-ECT ttl 64 id 44 protocol 6 offset (bytes) 0 flags [none] length: 1076 10.1.0.1 > 10.2.0.1) ns3::TcpHeader (49153 > 9000 [ACK] Seq=43009 Ack=1 Win=32768 ns3::TcpOptionTS(403;351) ns3::TcpOptionEnd(EOL)) Payload (size=1024)
r 0.409379 /NodeList/0/DeviceList/1/$ns3::PointToPointNetDevice/MacRx ns3::PppHeader (Point-to-Point Protocol: IP (0x0021)) ns3::Ipv4Header (tos 0x0 DSCP Default ECN Not-ECT ttl 64 id 45 protocol 6 offset (bytes) 0 flags [none] length: 1076 10.1.0.1 > 10.2.0.1) ns3::TcpHeader (49153 > 9000 [ACK] Seq=44033 Ack=1 Win=32768 ns3::TcpOptionTS(407;351) ns3::TcpOptionEnd(EOL)) Payload (size=1024)
r 0.413012 /NodeList/0/DeviceList/1/$ns3::PointToPointNetDevice/MacRx ns3::PppHeader (Point-to-Point Protocol: IP (0x0021)) ns3::Ipv4Header (tos 0x0 DSCP Default ECN Not-ECT ttl 64 id 46 protocol 6 offset (bytes) 0 flags [none] length: 1076 10.1.0.1 > 10.2.0.1) ns3::TcpHeader (49153 > 9000 [ACK] Seq=45057 Ack=1 Win=32768 ns3::TcpOptionTS(411;351) ns3::TcpOptionEnd(EOL)) Payload (size=1024)
r 0.416645 /NodeList/0/DeviceList/1/$ns3::PointToPointNetDevice/MacRx ns3::PppHeader (Point-to-Point Protocol: IP (0x0021)) ns3::Ipv4Header (tos 0x0 DSCP Default ECN Not-ECT ttl 64 id 47 protocol 6 offset (bytes) 0 flags [none] length: 1076 10.1.0.1 > 10.2.0.1) ns3::TcpHeader (49153 > 9000 [ACK] Seq=46081 Ack=1 Win=32768 ns3::TcpOptionTS(414;351) ns3::TcpOptionEnd(EOL)) Payload (size=1024)
+ 0.420088 /NodeList/0/DeviceList/1/$ns3::PointToPointNetDevice/TxQueue/Enqueue ns3::PppHeader (Point-to-Point Protocol: IP (0x0021)) ns3::Ipv4Header (tos 0x0 DSCP Default ECN Not-ECT ttl 62 id 11 protocol 6 offset (bytes) 0 flags [none] length: 52 10.2.0.1 > 10.1.0.1) ns3::TcpHeader (9000 > 49153 [ACK] Seq=1 Ack=21505 Win=32768 ns3::TcpOptionTS(368;265) ns3::TcpOptionEnd(EOL))
- 0.420088 /NodeList/0/DeviceList/1/$ns3::PointToPointNetDevice/TxQueue/Dequeue ns3::PppHeader (Point-to-Point Protocol: IP (0x0021)) ns3::Ipv4Header (tos 0x0 DSCP Default ECN Not-ECT ttl 62 id 11 protocol 6 offset (bytes) 0 flags [none] length: 52 10.2.0.1 > 10.1.0.1) ns3::TcpHeader (9000 > 49153 [ACK] Seq=1 Ack=21505 Win=32768 ns3::TcpOptionTS(368;265) ns3::TcpOptionEnd(EOL))
r 0.422994 /NodeList/0/DeviceList/1/$ns3::PointToPointNetDevice/MacRx ns3::PppHeader (Point-to-Point Protocol: IP (0x0021)) ns3::Ipv4Header (tos 0x0 DSCP Default ECN Not-ECT ttl 64 id 48 protocol 6 offset (bytes) 0 flags [none] length: 1076 10.1.0.1 > 10.2.0.1) ns3::TcpHeader (49153 > 9000 [ACK] Seq=47105 Ack=1 Win=32768 ns3::TcpOptionTS(421;368) ns3::TcpOptionEnd(EOL)) Payload (size=1024)
r 0.426627 /NodeList/0/DeviceList/1/$ns3::PointToPointNetDevice/MacRx ns3::PppHeader (Point-to-Point Protocol: IP (0x0021)) ns3::Ipv4Header (tos 0x0 DSCP Default ECN Not-ECT ttl 64 id 49 protocol 6 offset (bytes) 0 flags [none] length: 1076 10.1.0.1 > 10.2.0.1) ns3::TcpHeader (49153 > 9000 [ACK] Seq=48129 Ack=1 Win=32768 ns3::TcpOptionTS(424;368) ns3::TcpOptionEnd(EOL)) Payload (size=1024)
r 0.43026 /NodeList/0/DeviceList/1/$ns3::PointToPointNetDevice/MacRx ns3::PppHeader (Point-to-Point Protocol: IP (0x0021)) ns3::Ipv4Header (tos 0x0 DSCP Default ECN Not-ECT ttl 64 id 50 protocol 6 offset (bytes) 0 flags [none] length: 1076 10.1.0.1 > 10.2.0.1) ns3::TcpHeader (49153 > 9000 [ACK] Seq=49153 Ack=1 Win=32768 ns3::TcpOptionTS(428;368) ns3::TcpOptionEnd(EOL)) Payload (size=1024)
r 0.433893 /NodeList/0/DeviceList/1/$ns3::PointToPointNetDevice/MacRx ns3::PppHeader (Point-to-Point Protocol: IP (0x0021)) ns3::Ipv4Header (tos 0x0 DSCP Default ECN Not-ECT ttl 64 id 51 protocol 6 offset (bytes) 0 flags [none] length: 1076 10.1.0.1 > 10.2.0.1) ns3::TcpHeader (49153 > 9000 [ACK] Seq=50177 Ack=1 Win=32768 ns3::TcpOptionTS(432;368) ns3::TcpOptionEnd(EOL)) Payload (size=1024)